
Host: wittgenstein

Timers On : Thu Sep 30 11:07:02 2021
Timers Off: Thu Sep 30 11:09:57 2021

Wall Time:      174.89 seconds

                                                       Time (seconds)
Module                                       User      System        Wall        Calls

--------------------------------------------------------------------------------------

**************************************************************************************
