
Host: nia-login02.scinet.local

Timers On : Tue Jun 22 13:23:42 2021
Timers Off: Tue Jun 22 13:23:44 2021

Wall Time:        1.36 seconds

                                                       Time (seconds)
Module                                       User      System        Wall        Calls

--------------------------------------------------------------------------------------

**************************************************************************************

Host: nia-login02.scinet.local

Timers On : Tue Jun 22 13:24:10 2021
Timers Off: Tue Jun 22 13:24:11 2021

Wall Time:        1.10 seconds

                                                       Time (seconds)
Module                                       User      System        Wall        Calls

--------------------------------------------------------------------------------------

**************************************************************************************

Host: nia-login02.scinet.local

Timers On : Tue Jun 22 13:25:01 2021
Timers Off: Tue Jun 22 13:25:03 2021

Wall Time:        2.14 seconds

                                                       Time (seconds)
Module                                       User      System        Wall        Calls

--------------------------------------------------------------------------------------

**************************************************************************************

Host: nia-login02.scinet.local

Timers On : Tue Jun 22 13:25:31 2021
Timers Off: Tue Jun 22 13:25:33 2021

Wall Time:        1.50 seconds

                                                       Time (seconds)
Module                                       User      System        Wall        Calls

--------------------------------------------------------------------------------------

**************************************************************************************

Host: alandro

Timers On : Wed Jul 14 12:05:38 2021
Timers Off: Wed Jul 14 12:05:39 2021

Wall Time:        1.22 seconds

                                                       Time (seconds)
Module                                       User      System        Wall        Calls

--------------------------------------------------------------------------------------

**************************************************************************************

Host: alandro

Timers On : Wed Jul 14 12:06:01 2021
Timers Off: Wed Jul 14 12:06:02 2021

Wall Time:        1.01 seconds

                                                       Time (seconds)
Module                                       User      System        Wall        Calls

--------------------------------------------------------------------------------------

**************************************************************************************

Host: wittgenstein

Timers On : Wed Sep 15 14:00:06 2021
Timers Off: Wed Sep 15 14:00:10 2021

Wall Time:        3.91 seconds

                                                       Time (seconds)
Module                                       User      System        Wall        Calls

--------------------------------------------------------------------------------------

**************************************************************************************

Host: wittgenstein

Timers On : Wed Sep 15 14:00:48 2021
Timers Off: Wed Sep 15 16:14:53 2021

Wall Time:     8044.44 seconds

                                                       Time (seconds)
Module                                       User      System        Wall        Calls

--------------------------------------------------------------------------------------

**************************************************************************************

Host: wittgenstein

Timers On : Fri Oct  1 08:26:38 2021
Timers Off: Fri Oct  1 12:05:48 2021

Wall Time:    13150.02 seconds

                                                       Time (seconds)
Module                                       User      System        Wall        Calls

--------------------------------------------------------------------------------------

**************************************************************************************

Host: wittgenstein

Timers On : Fri Oct  1 15:27:40 2021
Timers Off: Fri Oct  1 19:27:31 2021

Wall Time:    14391.05 seconds

                                                       Time (seconds)
Module                                       User      System        Wall        Calls

--------------------------------------------------------------------------------------

**************************************************************************************
