
Host: nia-login02.scinet.local

Timers On : Tue Jun 22 13:23:42 2021
Timers Off: Tue Jun 22 13:23:44 2021

Wall Time:        1.36 seconds

                                                       Time (seconds)
Module                                       User      System        Wall        Calls

--------------------------------------------------------------------------------------

**************************************************************************************

Host: nia-login02.scinet.local

Timers On : Tue Jun 22 13:24:10 2021
Timers Off: Tue Jun 22 13:24:11 2021

Wall Time:        1.10 seconds

                                                       Time (seconds)
Module                                       User      System        Wall        Calls

--------------------------------------------------------------------------------------

**************************************************************************************

Host: nia-login02.scinet.local

Timers On : Tue Jun 22 13:25:01 2021
Timers Off: Tue Jun 22 13:25:03 2021

Wall Time:        2.14 seconds

                                                       Time (seconds)
Module                                       User      System        Wall        Calls

--------------------------------------------------------------------------------------

**************************************************************************************

Host: nia-login02.scinet.local

Timers On : Tue Jun 22 13:25:31 2021
Timers Off: Tue Jun 22 13:25:33 2021

Wall Time:        1.50 seconds

                                                       Time (seconds)
Module                                       User      System        Wall        Calls

--------------------------------------------------------------------------------------

**************************************************************************************

Host: alandro

Timers On : Wed Jul 14 12:05:38 2021
Timers Off: Wed Jul 14 12:05:39 2021

Wall Time:        1.22 seconds

                                                       Time (seconds)
Module                                       User      System        Wall        Calls

--------------------------------------------------------------------------------------

**************************************************************************************

Host: alandro

Timers On : Wed Jul 14 12:06:01 2021
Timers Off: Wed Jul 14 12:06:02 2021

Wall Time:        1.01 seconds

                                                       Time (seconds)
Module                                       User      System        Wall        Calls

--------------------------------------------------------------------------------------

**************************************************************************************
