
Host: nia-login02.scinet.local

Timers On : Tue Jun 22 11:24:00 2021
Timers Off: Tue Jun 22 11:24:00 2021

Wall Time:        0.52 seconds

                                                       Time (seconds)
Module                                       User      System        Wall        Calls

--------------------------------------------------------------------------------------

**************************************************************************************

Host: nia-login02.scinet.local

Timers On : Tue Jun 22 11:27:28 2021
Timers Off: Tue Jun 22 11:28:28 2021

Wall Time:       60.30 seconds

                                                       Time (seconds)
Module                                       User      System        Wall        Calls

--------------------------------------------------------------------------------------

**************************************************************************************

Host: nia-login02.scinet.local

Timers On : Tue Jun 22 11:30:42 2021
Timers Off: Tue Jun 22 11:31:41 2021

Wall Time:       58.79 seconds

                                                       Time (seconds)
Module                                       User      System        Wall        Calls

--------------------------------------------------------------------------------------

**************************************************************************************

Host: nia-login02.scinet.local

Timers On : Tue Jun 22 11:33:46 2021
Timers Off: Tue Jun 22 11:33:47 2021

Wall Time:        0.44 seconds

                                                       Time (seconds)
Module                                       User      System        Wall        Calls

--------------------------------------------------------------------------------------

**************************************************************************************

Host: nia-login02.scinet.local

Timers On : Tue Jun 22 11:40:32 2021
Timers Off: Tue Jun 22 11:40:32 2021

Wall Time:        0.45 seconds

                                                       Time (seconds)
Module                                       User      System        Wall        Calls

--------------------------------------------------------------------------------------

**************************************************************************************

Host: nia-login02.scinet.local

Timers On : Tue Jun 22 11:40:50 2021
Timers Off: Tue Jun 22 11:40:50 2021

Wall Time:        0.45 seconds

                                                       Time (seconds)
Module                                       User      System        Wall        Calls

--------------------------------------------------------------------------------------

**************************************************************************************

Host: nia-login02.scinet.local

Timers On : Tue Jun 22 11:41:19 2021
Timers Off: Tue Jun 22 11:41:20 2021

Wall Time:        0.44 seconds

                                                       Time (seconds)
Module                                       User      System        Wall        Calls

--------------------------------------------------------------------------------------

**************************************************************************************

Host: nia-login02.scinet.local

Timers On : Tue Jun 22 11:41:56 2021
Timers Off: Tue Jun 22 11:41:56 2021

Wall Time:        0.43 seconds

                                                       Time (seconds)
Module                                       User      System        Wall        Calls

--------------------------------------------------------------------------------------

**************************************************************************************

Host: nia-login02.scinet.local

Timers On : Tue Jun 22 11:42:41 2021
Timers Off: Tue Jun 22 11:42:41 2021

Wall Time:        0.45 seconds

                                                       Time (seconds)
Module                                       User      System        Wall        Calls

--------------------------------------------------------------------------------------

**************************************************************************************

Host: nia-login02.scinet.local

Timers On : Tue Jun 22 11:43:01 2021
Timers Off: Tue Jun 22 11:43:01 2021

Wall Time:        0.43 seconds

                                                       Time (seconds)
Module                                       User      System        Wall        Calls

--------------------------------------------------------------------------------------

**************************************************************************************

Host: nia-login02.scinet.local

Timers On : Tue Jun 22 11:43:23 2021
Timers Off: Tue Jun 22 11:43:23 2021

Wall Time:        0.45 seconds

                                                       Time (seconds)
Module                                       User      System        Wall        Calls

--------------------------------------------------------------------------------------

**************************************************************************************

Host: nia-login02.scinet.local

Timers On : Tue Jun 22 13:20:59 2021
Timers Off: Tue Jun 22 13:21:00 2021

Wall Time:        0.35 seconds

                                                       Time (seconds)
Module                                       User      System        Wall        Calls

--------------------------------------------------------------------------------------

**************************************************************************************

Host: nia-login02.scinet.local

Timers On : Tue Jun 22 13:21:33 2021
Timers Off: Tue Jun 22 13:21:33 2021

Wall Time:        0.30 seconds

                                                       Time (seconds)
Module                                       User      System        Wall        Calls

--------------------------------------------------------------------------------------

**************************************************************************************

Host: nia-login02.scinet.local

Timers On : Tue Jun 22 13:22:41 2021
Timers Off: Tue Jun 22 13:22:42 2021

Wall Time:        0.31 seconds

                                                       Time (seconds)
Module                                       User      System        Wall        Calls

--------------------------------------------------------------------------------------

**************************************************************************************
