
Host: wittgenstein

Timers On : Thu Sep 30 15:38:45 2021
Timers Off: Thu Sep 30 15:41:34 2021

Wall Time:      168.77 seconds

                                                       Time (seconds)
Module                                       User      System        Wall        Calls

--------------------------------------------------------------------------------------

**************************************************************************************
