
Host: wittgenstein

Timers On : Thu Sep 30 15:42:29 2021
Timers Off: Thu Sep 30 15:44:57 2021

Wall Time:      148.09 seconds

                                                       Time (seconds)
Module                                       User      System        Wall        Calls

--------------------------------------------------------------------------------------

**************************************************************************************
